LAMMPS data file generated by pdb2data of zhouyu. # 26-May-2020
 15 atoms
 10 bonds
 5 angles
 0 dihedrals
 0 impropers
 
 2 atom types
 1 bond types
 1 angle types
 0 dihedral types
 0 improper types
 
 2.000000 19.000000 xlo xhi
 5.000000 18.000000 ylo yhi
 46.000000 128.000000 zlo zhi

 Masses

 1 1.00794 #H
 2 15.99940 #O

 Pair Coeffs

 1 0.00000 0.00000 #H
 2 0.15555 3.16900 #O

 Bond Coeffs

 1 450 0.9572 #OH

 Angle Coeffs

 1 55 104.52 #HOH

Atoms

1 1 1 0.417000 10.547000 14.588000 47.136000
2 1 1 0.417000 9.052000 13.941000 47.248000
3 1 2 -0.834000 9.908000 13.933000 46.732000
4 2 1 0.417000 8.999000 7.317000 87.920000
5 2 1 0.417000 9.357000 8.890000 88.175000
6 2 2 -0.834000 9.388000 7.972000 88.568000
7 3 1 0.417000 17.432000 17.149000 127.243000
8 3 1 0.417000 18.809000 16.913000 126.397000
9 3 2 -0.834000 18.216000 17.600000 126.816000
10 4 1 0.417000 3.338000 11.853000 113.352000
11 4 1 0.417000 2.780000 10.319000 113.398000
12 4 2 -0.834000 2.517000 11.283000 113.393000
13 5 1 0.417000 7.664000 5.269000 93.970000
14 5 1 0.417000 8.066000 6.822000 93.665000
15 5 2 -0.834000 7.494000 6.222000 94.223000

Bonds

1 1 3 1
2 1 3 2
3 1 6 4
4 1 6 5
5 1 9 7
6 1 9 8
7 1 12 10
8 1 12 11
9 1 15 13
10 1 15 14

Angles

1 1 1 3 2
2 1 4 6 5
3 1 7 9 8
4 1 10 12 11
5 1 13 15 14
